ITEM: TIMESTEP
2950000
ITEM: NUMBER OF ATOMS
8
ITEM: BOX BOUNDS ss ss pp
-3.9752523047213700e+01 7.0025722836689354e+01
-3.8851382083548998e+01 7.0364273070723058e+01
-2.4000000000000000e+01 8.9000000000000000e+01
ITEM: ATOMS id type x y z vx vy vz
11828 1 10.1793 2.06557 86.0724 0 0 0
11908 1 10.1815 7.47698 86.0688 0 0 0
13585 1 7.49968 37.1027 80.5002 -3.82574 2.33486 -1.9141
13665 1 12.9365 15.6553 80.5397 0.162886 2.08655 9.5837
18297 1 15.5454 7.5738 80.6035 0.0838825 -0.342109 0.172677
19974 1 39.9533 10.1976 75.0511 -1.71866 3.55659 -4.03858
20054 1 18.3927 15.6102 75.0312 -1.42108 -1.3985 -2.0665
20134 1 18.3667 21.0577 75.0629 4.60987 -5.22116 1.76813
ITEM: TIMESTEP
2950010
ITEM: NUMBER OF ATOMS
8
ITEM: BOX BOUNDS ss ss pp
-3.9752523047213700e+01 7.0025722836689354e+01
-3.8851382083548998e+01 7.0364273070723058e+01
-2.4000000000000000e+01 8.9000000000000000e+01
ITEM: ATOMS id type x y z vx vy vz
11828 1 10.1793 2.06557 86.0724 0 0 0
11908 1 10.1815 7.47698 86.0688 0 0 0
13585 1 7.47945 37.1186 80.4919 -3.88867 3.62676 -1.26177
13665 1 12.9291 15.6632 80.585 -3.11315 -0.105832 7.82975
18297 1 15.5519 7.56587 80.6056 2.44234 -2.68184 0.834368
19974 1 39.94 10.2117 75.0269 -3.52825 2.13255 -5.24608
20054 1 18.3821 15.606 75.0209 -2.68387 -0.419353 -0.699238
20134 1 18.3861 21.0368 75.0748 3.18443 -3.79312 3.15101
ITEM: TIMESTEP
2950020
ITEM: NUMBER OF ATOMS
8
ITEM: BOX BOUNDS ss ss pp
-3.9752523047213700e+01 7.0025722836689354e+01
-3.8851382083548998e+01 7.0364273070723058e+01
-2.4000000000000000e+01 8.9000000000000000e+01
ITEM: ATOMS id type x y z vx vy vz
11828 1 10.1793 2.06557 86.0724 0 0 0
11908 1 10.1815 7.47698 86.0688 0 0 0
13585 1 7.45999 37.1417 80.4877 -3.95896 5.04619 -0.481202
13665 1 12.9136 15.6592 80.6232 -3.38565 -0.536003 7.15176
18297 1 15.5658 7.54945 80.6109 3.0008 -3.57374 1.79934
19974 1 39.9216 10.2201 75.0071 -4.56113 1.66906 -3.55741
20054 1 18.365 15.6066 75.0257 -4.30131 -0.36463 1.84305
20134 1 18.3938 21.0174 75.0869 0.0333984 -2.7996 2.38228
ITEM: TIMESTEP
2950030
ITEM: NUMBER OF ATOMS
8
ITEM: BOX BOUNDS ss ss pp
-3.9752523047213700e+01 7.0025722836689354e+01
-3.8851382083548998e+01 7.0364273070723058e+01
-2.4000000000000000e+01 8.9000000000000000e+01
ITEM: ATOMS id type x y z vx vy vz
11828 1 10.1793 2.06557 86.0724 0 0 0
11908 1 10.1815 7.47698 86.0688 0 0 0
13585 1 7.44154 37.1622 80.4894 -3.41358 3.53165 -0.222998
13665 1 12.8969 15.65 80.6488 -4.14842 -3.46643 3.44771
18297 1 15.5786 7.52926 80.6242 2.62781 -4.35855 3.69857
19974 1 39.8989 10.2229 74.9872 -3.7508 -1.18281 -4.6626
20054 1 18.3423 15.6052 75.0397 -4.36392 0.243033 3.932
20134 1 18.3896 21.0103 75.1014 -1.49232 -0.233107 3.12067
ITEM: TIMESTEP
2950040
ITEM: NUMBER OF ATOMS
8
ITEM: BOX BOUNDS ss ss pp
-3.9752523047213700e+01 7.0025722836689354e+01
-3.8851382083548998e+01 7.0364273070723058e+01
-2.4000000000000000e+01 8.9000000000000000e+01
ITEM: ATOMS id type x y z vx vy vz
11828 1 10.1793 2.06557 86.0724 0 0 0
11908 1 10.1815 7.47698 86.0688 0 0 0
13585 1 7.42547 37.1766 80.4883 -2.64883 1.94951 0.0666096
13665 1 12.8775 15.6268 80.6594 -3.10163 -5.40577 1.51314
18297 1 15.5931 7.50813 80.6434 2.54678 -4.17675 3.62274
19974 1 39.8797 10.2087 74.9654 -4.02048 -3.1143 -3.96343
20054 1 18.3217 15.6086 75.0577 -3.54368 1.72244 2.84816
20134 1 18.3783 21.0175 75.1094 -3.25412 2.46666 0.947212
ITEM: TIMESTEP
2950050
ITEM: NUMBER OF ATOMS
8
ITEM: BOX BOUNDS ss ss pp
-3.9718965952318911e+01 7.0051617408578721e+01
-3.8870108081460771e+01 7.0491899422702943e+01
-2.4000000000000000e+01 8.9000000000000000e+01
ITEM: ATOMS id type x y z vx vy vz
11828 1 10.1793 2.06557 86.0724 0 0 0
11908 1 10.1815 7.47698 86.0688 0 0 0
13585 1 7.41699 37.1841 80.4898 -1.22683 0.580947 0.503879
13665 1 12.8685 15.6001 80.6612 -0.101211 -5.30614 -0.0225154
18297 1 15.6048 7.48762 80.6587 1.9905 -3.83679 2.74927
19974 1 39.8644 10.19 74.9473 -1.90018 -3.81048 -3.86158
20054 1 18.3083 15.6111 75.0687 -1.57707 -0.938653 1.97521
20134 1 18.3615 21.0325 75.1123 -3.40807 3.68481 -0.191583
ITEM: TIMESTEP
2950060
ITEM: NUMBER OF ATOMS
8
ITEM: BOX BOUNDS ss ss pp
-3.9718965952318911e+01 7.0051617408578721e+01
-3.8870108081460771e+01 7.0491899422702943e+01
-2.4000000000000000e+01 8.9000000000000000e+01
ITEM: ATOMS id type x y z vx vy vz
11828 1 10.1793 2.06557 86.0724 0 0 0
11908 1 10.1815 7.47698 86.0688 0 0 0
13585 1 7.41967 37.1901 80.4971 1.96248 1.17093 2.57762
13665 1 12.873 15.5749 80.6527 1.21772 -3.64418 -3.39089
18297 1 15.6113 7.47112 80.6703 1.27284 -2.75311 1.81293
19974 1 39.8608 10.1668 74.93 1.06046 -4.6398 -2.94599
20054 1 18.3079 15.6041 75.0757 1.64119 -1.19491 -0.0333951
20134 1 18.3466 21.0497 75.1114 -2.1521 3.80047 -0.332624
ITEM: TIMESTEP
2950070
ITEM: NUMBER OF ATOMS
8
ITEM: BOX BOUNDS ss ss pp
-3.9718965952318911e+01 7.0051617408578721e+01
-3.8870108081460771e+01 7.0491899422702943e+01
-2.4000000000000000e+01 8.9000000000000000e+01
ITEM: ATOMS id type x y z vx vy vz
11828 1 10.1793 2.06557 86.0724 0 0 0
11908 1 10.1815 7.47698 86.0688 0 0 0
13585 1 7.43365 37.1956 80.5103 3.12364 0.970398 3.12107
13665 1 12.8839 15.5602 80.6322 3.25991 -2.10966 -4.37852
18297 1 15.6155 7.46094 80.6733 0.931558 -0.248017 -0.484117
19974 1 39.8672 10.1419 74.9136 2.0755 -4.5018 -4.20637
20054 1 18.3195 15.5972 75.0713 2.30934 -1.33229 -1.92053
20134 1 18.3381 21.0637 75.1049 -1.4446 2.33036 -1.83804
ITEM: TIMESTEP
2950080
ITEM: NUMBER OF ATOMS
8
ITEM: BOX BOUNDS ss ss pp
-3.9718965952318911e+01 7.0051617408578721e+01
-3.8870108081460771e+01 7.0491899422702943e+01
-2.4000000000000000e+01 8.9000000000000000e+01
ITEM: ATOMS id type x y z vx vy vz
11828 1 10.1793 2.06557 86.0724 0 0 0
11908 1 10.1815 7.47698 86.0688 0 0 0
13585 1 7.45211 37.2003 80.5267 4.15467 1.6496 3.22789
13665 1 12.8987 15.5562 80.6132 2.92514 0.677805 -3.42703
18297 1 15.6202 7.46717 80.6674 0.581488 2.43656 -1.31823
19974 1 39.8794 10.1277 74.9013 2.15865 -1.40954 -1.43688
20054 1 18.3364 15.5872 75.0628 4.10682 -2.13035 -0.76504
20134 1 18.3328 21.0735 75.1012 0.43894 1.24636 -0.383272
ITEM: TIMESTEP
2950090
ITEM: NUMBER OF ATOMS
8
ITEM: BOX BOUNDS ss ss pp
-3.9718965952318911e+01 7.0051617408578721e+01
-3.8870108081460771e+01 7.0491899422702943e+01
-2.4000000000000000e+01 8.9000000000000000e+01
ITEM: ATOMS id type x y z vx vy vz
11828 1 10.1793 2.06557 86.0724 0 0 0
11908 1 10.1815 7.47698 86.0688 0 0 0
13585 1 7.4695 37.2105 80.5449 2.13211 2.53612 3.9762
13665 1 12.9086 15.5625 80.5993 1.63875 2.1706 -1.90013
18297 1 15.6174 7.48596 80.6557 -1.75381 3.83106 -3.3091
19974 1 39.8866 10.1254 74.8976 1.68919 0.556489 0.59919
20054 1 18.3559 15.5788 75.0585 3.4404 -2.381 -1.13695
20134 1 18.3366 21.0745 75.0989 1.98658 -0.879414 -1.00138
ITEM: TIMESTEP
2950100
ITEM: NUMBER OF ATOMS
8
ITEM: BOX BOUNDS ss ss pp
-3.9718965952318911e+01 7.0051617408578721e+01
-3.8870108081460771e+01 7.0491899422702943e+01
-2.4000000000000000e+01 8.9000000000000000e+01
ITEM: ATOMS id type x y z vx vy vz
11828 1 10.1793 2.06557 86.0724 0 0 0
11908 1 10.1815 7.47698 86.0688 0 0 0
13585 1 7.47372 37.2266 80.5679 0.269609 3.91718 4.56688
13665 1 12.9146 15.5783 80.5934 -0.760825 3.80204 -0.881841
18297 1 15.6031 7.50507 80.6338 -3.80181 3.58795 -5.03791
19974 1 39.8982 10.1327 74.9051 2.79399 2.68624 1.93799
20054 1 18.3716 15.5677 75.055 3.07683 -1.33501 -0.977311
20134 1 18.345 21.0661 75.0909 2.54302 -1.70124 -2.76343
ITEM: TIMESTEP
2950110
ITEM: NUMBER OF ATOMS
8
ITEM: BOX BOUNDS ss ss pp
-3.9718965952318911e+01 7.0051617408578721e+01
-3.8870108081460771e+01 7.0491899422702943e+01
-2.4000000000000000e+01 8.9000000000000000e+01
ITEM: ATOMS id type x y z vx vy vz
11828 1 10.1793 2.06557 86.0724 0 0 0
11908 1 10.1815 7.47698 86.0688 0 0 0
13585 1 7.47688 37.2498 80.5896 1.52285 4.67986 3.89811
13665 1 12.9066 15.5917 80.5903 -2.40875 1.72982 -0.684915
18297 1 15.5796 7.51999 80.6075 -5.39135 1.53585 -4.59836
19974 1 39.913 10.1505 74.9202 2.38266 4.48877 3.844
20054 1 18.3873 15.5614 75.0496 2.83669 -0.380946 -0.796315
20134 1 18.3578 21.0618 75.079 2.41127 -0.434002 -2.47016
ITEM: TIMESTEP
2950120
ITEM: NUMBER OF ATOMS
8
ITEM: BOX BOUNDS ss ss pp
-3.9718965952318911e+01 7.0051617408578721e+01
-3.8870108081460771e+01 7.0491899422702943e+01
-2.4000000000000000e+01 8.9000000000000000e+01
ITEM: ATOMS id type x y z vx vy vz
11828 1 10.1793 2.06557 86.0724 0 0 0
11908 1 10.1815 7.47698 86.0688 0 0 0
13585 1 7.48149 37.2682 80.6033 -0.719603 2.58583 2.34914
13665 1 12.8968 15.5961 80.584 -1.35939 0.465409 -1.22813
18297 1 15.5577 7.52552 80.5937 -3.0727 1.34987 -1.99009
19974 1 39.9232 10.1787 74.9441 0.761992 5.88867 5.72029
20054 1 18.3914 15.5606 75.0452 -0.414104 0.676216 -1.24513
20134 1 18.3686 21.0553 75.0613 2.28678 -1.70986 -3.31718
ITEM: TIMESTEP
2950130
ITEM: NUMBER OF ATOMS
8
ITEM: BOX BOUNDS ss ss pp
-3.9718965952318911e+01 7.0051617408578721e+01
-3.8870108081460771e+01 7.0491899422702943e+01
-2.4000000000000000e+01 8.9000000000000000e+01
ITEM: ATOMS id type x y z vx vy vz
11828 1 10.1793 2.06557 86.0724 0 0 0
11908 1 10.1815 7.47698 86.0688 0 0 0
13585 1 7.47432 37.2763 80.6195 -1.8684 -0.198795 3.63713
13665 1 12.8927 15.5933 80.5793 -1.09215 -1.26593 -1.1456
18297 1 15.5477 7.52659 80.5855 -1.14372 -1.06868 -1.24295
19974 1 39.9287 10.2089 74.9708 1.05793 5.99352 4.20364
20054 1 18.3823 15.5654 75.0363 -3.32674 0.756176 -1.70123
20134 1 18.3806 21.0417 75.0462 1.83946 -2.89704 -2.89788
ITEM: TIMESTEP
2950140
ITEM: NUMBER OF ATOMS
8
ITEM: BOX BOUNDS ss ss pp
-3.9718965952318911e+01 7.0051617408578721e+01
-3.8870108081460771e+01 7.0491899422702943e+01
-2.4000000000000000e+01 8.9000000000000000e+01
ITEM: ATOMS id type x y z vx vy vz
11828 1 10.1793 2.06557 86.0724 0 0 0
11908 1 10.1815 7.47698 86.0688 0 0 0
13585 1 7.46693 37.2708 80.6334 -1.30382 -1.28732 2.84558
13665 1 12.89 15.5863 80.5701 0.193235 -0.987118 -2.15984
18297 1 15.5482 7.51443 80.5833 0.744775 -3.99467 -0.249748
19974 1 39.936 10.237 74.9837 1.73532 4.93053 2.0141
20054 1 18.3628 15.5711 75.029 -3.77242 1.08158 -1.56334
20134 1 18.3928 21.0272 75.0326 2.78835 -2.21898 -2.47984
ITEM: TIMESTEP
2950150
ITEM: NUMBER OF ATOMS
8
ITEM: BOX BOUNDS ss ss pp
-3.9718965952318911e+01 7.0051617408578721e+01
-3.8870108081460771e+01 7.0491899422702943e+01
-2.4000000000000000e+01 8.9000000000000000e+01
ITEM: ATOMS id type x y z vx vy vz
11828 1 10.1793 2.06557 86.0724 0 0 0
11908 1 10.1815 7.47698 86.0688 0 0 0
13585 1 7.4611 37.2595 80.65 -0.979804 -2.02049 3.98912
13665 1 12.8972 15.5812 80.5546 2.76199 -1.56413 -3.43946
18297 1 15.5547 7.48602 80.5868 1.84495 -6.14648 1.46934
19974 1 39.9431 10.2613 74.9947 1.0985 3.58539 2.67425
20054 1 18.3437 15.5717 75.0201 -3.95761 -1.21844 -2.44862
20134 1 18.405 21.0204 75.0232 1.59278 -0.285115 -2.01252
ITEM: TIMESTEP
2950160
ITEM: NUMBER OF ATOMS
8
ITEM: BOX BOUNDS ss ss pp
-3.9718965952318911e+01 7.0051617408578721e+01
-3.8870108081460771e+01 7.0491899422702943e+01
-2.4000000000000000e+01 8.9000000000000000e+01
ITEM: ATOMS id type x y z vx vy vz
11828 1 10.1793 2.06557 86.0724 0 0 0
11908 1 10.1815 7.47698 86.0688 0 0 0
13585 1 7.46051 37.2514 80.6664 1.07604 -1.79935 3.43859
13665 1 12.9116 15.5707 80.5374 3.48387 -2.64962 -3.52524
18297 1 15.5671 7.45325 80.5956 2.7821 -6.18258 2.2975
19974 1 39.9455 10.2741 75.0068 0.098607 1.85193 2.68598
20054 1 18.3271 15.5651 75.0132 -2.41015 -1.89301 -0.683238
20134 1 18.4093 21.0214 75.0261 0.898105 0.0899149 2.63241
ITEM: TIMESTEP
2950170
ITEM: NUMBER OF ATOMS
8
ITEM: BOX BOUNDS ss ss pp
-3.9718965952318911e+01 7.0051617408578721e+01
-3.8870108081460771e+01 7.0491899422702943e+01
-2.4000000000000000e+01 8.9000000000000000e+01
ITEM: ATOMS id type x y z vx vy vz
11828 1 10.1793 2.06557 86.0724 0 0 0
11908 1 10.1815 7.47698 86.0688 0 0 0
13585 1 7.46787 37.2466 80.6832 1.09525 -0.128686 1.94365
13665 1 12.9298 15.5621 80.5185 2.95452 -2.11365 -4.15253
18297 1 15.5805 7.41996 80.6061 2.72806 -6.50674 0.795023
19974 1 39.9454 10.277 75.0179 0.0178842 -0.153593 2.22946
20054 1 18.313 15.557 75.0089 -3.7729 -1.50846 -0.561906
20134 1 18.4057 21.0227 75.0389 -1.56423 0.407644 2.95146
ITEM: TIMESTEP
2950180
ITEM: NUMBER OF ATOMS
8
ITEM: BOX BOUNDS ss ss pp
-3.9718965952318911e+01 7.0051617408578721e+01
-3.8870108081460771e+01 7.0491899422702943e+01
-2.4000000000000000e+01 8.9000000000000000e+01
ITEM: ATOMS id type x y z vx vy vz
11828 1 10.1793 2.06557 86.0724 0 0 0
11908 1 10.1815 7.47698 86.0688 0 0 0
13585 1 7.47912 37.2492 80.6888 2.84968 0.762282 0.248175
13665 1 12.9488 15.5529 80.4996 4.34338 -1.15434 -3.05658
18297 1 15.5939 7.39249 80.6095 2.43479 -5.16844 -0.322357
19974 1 39.9401 10.2733 75.0245 -2.37239 -1.98476 0.716351
20054 1 18.2976 15.5539 75.0045 -2.06902 -0.227079 -1.38358
20134 1 18.3992 21.024 75.055 -1.28581 0.345893 3.99117
ITEM: TIMESTEP
2950190
ITEM: NUMBER OF ATOMS
8
ITEM: BOX BOUNDS ss ss pp
-3.9718965952318911e+01 7.0051617408578721e+01
-3.8870108081460771e+01 7.0491899422702943e+01
-2.4000000000000000e+01 8.9000000000000000e+01
ITEM: ATOMS id type x y z vx vy vz
11828 1 10.1793 2.06557 86.0724 0 0 0
11908 1 10.1815 7.47698 86.0688 0 0 0
13585 1 7.4961 37.2547 80.6866 3.2232 1.57165 -0.840777
13665 1 12.9704 15.5444 80.4858 4.00286 -1.3297 -2.28243
18297 1 15.6077 7.37258 80.603 2.98325 -2.69286 -2.47589
19974 1 39.9275 10.2629 75.0248 -2.39915 -2.35018 0.321157
20054 1 18.2928 15.557 74.9972 -0.166233 1.72799 -1.04332
20134 1 18.3896 21.0257 75.0757 -2.66066 0.0283185 4.36571
ITEM: TIMESTEP
2950200
ITEM: NUMBER OF ATOMS
8
ITEM: BOX BOUNDS ss ss pp
-3.9718965952318911e+01 7.0051617408578721e+01
-3.8870108081460771e+01 7.0491899422702943e+01
-2.4000000000000000e+01 8.9000000000000000e+01
ITEM: ATOMS id type x y z vx vy vz
11828 1 10.1793 2.06557 86.0724 0 0 0
11908 1 10.1815 7.47698 86.0688 0 0 0
13585 1 7.50907 37.2619 80.6835 1.1912 0.890296 -0.827061
13665 1 12.9857 15.5404 80.4774 2.28534 -0.102956 -0.105515
18297 1 15.6189 7.36671 80.5876 0.734531 0.500681 -3.47889
19974 1 39.9196 10.2446 75.0243 -1.75233 -4.23434 -0.310962
20054 1 18.2951 15.5724 74.9896 0.879877 4.54105 -1.81347
20134 1 18.3756 21.0235 75.0944 -2.70599 -0.80272 2.85369
ITEM: TIMESTEP
2950210
ITEM: NUMBER OF ATOMS
8
ITEM: BOX BOUNDS ss ss pp
-3.9718965952318911e+01 7.0051617408578721e+01
-3.8870108081460771e+01 7.0491899422702943e+01
-2.4000000000000000e+01 8.9000000000000000e+01
ITEM: ATOMS id type x y z vx vy vz
11828 1 10.1793 2.06557 86.0724 0 0 0
11908 1 10.1815 7.47698 86.0688 0 0 0
13585 1 7.51213 37.2608 80.6746 0.572818 -0.880353 -2.95123
13665 1 12.9922 15.5397 80.4841 0.209804 -0.937822 2.33697
18297 1 15.6161 7.38021 80.5659 -1.69593 3.73314 -3.86654
19974 1 39.9128 10.2262 75.0243 -1.16225 -2.39977 -0.489067
20054 1 18.3056 15.5987 74.9831 3.44562 6.31013 -1.54548
20134 1 18.3613 21.0146 75.107 -3.00948 -1.67318 1.77239
ITEM: TIMESTEP
2950220
ITEM: NUMBER OF ATOMS
8
ITEM: BOX BOUNDS ss ss pp
-3.9718965952318911e+01 7.0051617408578721e+01
-3.8870108081460771e+01 7.0491899422702943e+01
-2.4000000000000000e+01 8.9000000000000000e+01
ITEM: ATOMS id type x y z vx vy vz
11828 1 10.1793 2.06557 86.0724 0 0 0
11908 1 10.1815 7.47698 86.0688 0 0 0
13585 1 7.51243 37.252 80.6564 -0.176923 -2.7505 -3.84107
13665 1 12.9891 15.5288 80.4993 -1.52537 -2.99229 2.65545
18297 1 15.6008 7.39727 80.5523 -3.14099 3.76348 -1.97046
19974 1 39.9109 10.2201 75.0247 -0.575777 -0.312481 0.875552
20054 1 18.322 15.6305 74.9741 2.74275 5.95513 -0.929362
20134 1 18.3459 21.0065 75.1151 -2.34299 -1.82731 1.1342
ITEM: TIMESTEP
2950230
ITEM: NUMBER OF ATOMS
8
ITEM: BOX BOUNDS ss ss pp
-3.9718965952318911e+01 7.0051617408578721e+01
-3.8870108081460771e+01 7.0491899422702943e+01
-2.4000000000000000e+01 8.9000000000000000e+01
ITEM: ATOMS id type x y z vx vy vz
11828 1 10.1793 2.06557 86.0724 0 0 0
11908 1 10.1815 7.47698 86.0688 0 0 0
13585 1 7.50693 37.2352 80.632 -2.22656 -3.82404 -5.04516
13665 1 12.9751 15.5123 80.5123 -3.98772 -3.83035 1.84605
18297 1 15.5826 7.41813 80.5428 -4.48035 4.32714 -1.2457
19974 1 39.908 10.2213 75.029 -0.295271 0.786152 0.504613
20054 1 18.3382 15.6602 74.9706 2.94941 6.19267 -0.0454879
20134 1 18.3352 20.9969 75.1149 -1.85816 -1.1198 -0.836108
ITEM: TIMESTEP
2950240
ITEM: NUMBER OF ATOMS
8
ITEM: BOX BOUNDS ss ss pp
-3.9718965952318911e+01 7.0051617408578721e+01
-3.8870108081460771e+01 7.0491899422702943e+01
-2.4000000000000000e+01 8.9000000000000000e+01
ITEM: ATOMS id type x y z vx vy vz
11828 1 10.1793 2.06557 86.0724 0 0 0
11908 1 10.1815 7.47698 86.0688 0 0 0
13585 1 7.49193 37.2162 80.609 -3.74194 -5.08416 -3.66073
13665 1 12.9553 15.4981 80.5177 -3.28717 -1.67664 0.931066
18297 1 15.559 7.44055 80.5382 -4.41096 4.39166 -0.264271
19974 1 39.9103 10.2248 75.0357 0.908862 0.324716 2.00666
20054 1 18.3491 15.6853 74.9737 1.83886 3.89876 0.863097
20134 1 18.3248 20.9889 75.103 -2.49562 -2.37949 -2.91818
ITEM: TIMESTEP
2950250
ITEM: NUMBER OF ATOMS
8
ITEM: BOX BOUNDS ss ss pp
-3.9718965952318911e+01 7.0051617408578721e+01
-3.8870108081460771e+01 7.0491899422702943e+01
-2.4000000000000000e+01 8.9000000000000000e+01
ITEM: ATOMS id type x y z vx vy vz
11828 1 10.1793 2.06557 86.0724 0 0 0
11908 1 10.1815 7.47698 86.0688 0 0 0
13585 1 7.47201 37.1864 80.5942 -3.7665 -6.31409 -2.41544
13665 1 12.9469 15.4914 80.5227 -0.918491 -0.648725 0.272609
18297 1 15.5408 7.46061 80.5434 -2.96669 3.46305 3.09436
19974 1 39.9184 10.2221 75.052 1.21602 -1.30549 4.07298
20054 1 18.3547 15.708 74.9745 0.301164 4.64655 -0.364795
20134 1 18.3183 20.977 75.0855 -0.691654 -2.31031 -4.65967
ITEM: TIMESTEP
2950260
ITEM: NUMBER OF ATOMS
8
ITEM: BOX BOUNDS ss ss pp
-3.9718965952318911e+01 7.0051617408578721e+01
-3.8870108081460771e+01 7.0491899422702943e+01
-2.4000000000000000e+01 8.9000000000000000e+01
ITEM: ATOMS id type x y z vx vy vz
11828 1 10.1793 2.06557 86.0724 0 0 0
11908 1 10.1815 7.47698 86.0688 0 0 0
13585 1 7.45729 37.1544 80.5823 -2.18109 -5.85205 -2.73401
13665 1 12.9414 15.4964 80.5236 -0.604345 2.51853 -0.484181
18297 1 15.527 7.47307 80.5612 -1.97257 1.56857 4.70217
19974 1 39.9209 10.2095 75.0732 0.520526 -2.65059 4.97438
20054 1 18.3502 15.7223 74.9736 -2.07167 1.41106 0.0907337
20134 1 18.316 20.9672 75.0583 0.134439 -1.69386 -5.25806
ITEM: TIMESTEP
2950270
ITEM: NUMBER OF ATOMS
8
ITEM: BOX BOUNDS ss ss pp
-3.9718965952318911e+01 7.0051617408578721e+01
-3.8870108081460771e+01 7.0491899422702943e+01
-2.4000000000000000e+01 8.9000000000000000e+01
ITEM: ATOMS id type x y z vx vy vz
11828 1 10.1793 2.06557 86.0724 0 0 0
11908 1 10.1815 7.47698 86.0688 0 0 0
13585 1 7.44951 37.1255 80.5712 -0.616149 -5.64262 -1.69016
13665 1 12.9428 15.5155 80.5211 0.91167 4.84721 -0.641466
18297 1 15.521 7.47741 80.5865 -0.429523 -0.387368 5.16594
19974 1 39.9272 10.1988 75.0958 1.25989 -1.78639 4.43205
20054 1 18.3401 15.7232 74.9716 -2.79194 -0.959643 -0.189309
20134 1 18.3178 20.9601 75.0339 0.415446 -1.68891 -4.58284
ITEM: TIMESTEP
2950280
ITEM: NUMBER OF ATOMS
8
ITEM: BOX BOUNDS ss ss pp
-3.9718965952318911e+01 7.0051617408578721e+01
-3.8870108081460771e+01 7.0491899422702943e+01
-2.4000000000000000e+01 8.9000000000000000e+01
ITEM: ATOMS id type x y z vx vy vz
11828 1 10.1793 2.06557 86.0724 0 0 0
11908 1 10.1815 7.47698 86.0688 0 0 0
13585 1 7.44842 37.0984 80.5711 0.743635 -4.87139 1.54183
13665 1 12.9415 15.536 80.5182 -1.01639 3.16283 -0.562636
18297 1 15.5234 7.47819 80.6119 2.45789 -0.442301 4.92332
19974 1 39.9311 10.1921 75.1178 1.34574 -1.559 4.44053
20054 1 18.3308 15.7178 74.9655 -1.24792 -2.25848 -2.12017
20134 1 18.3188 20.9562 75.0097 -0.495811 0.282969 -5.77065
ITEM: TIMESTEP
2950290
ITEM: NUMBER OF ATOMS
8
ITEM: BOX BOUNDS ss ss pp
-3.9718965952318911e+01 7.0051617408578721e+01
-3.8870108081460771e+01 7.0491899422702943e+01
-2.4000000000000000e+01 8.9000000000000000e+01
ITEM: ATOMS id type x y z vx vy vz
11828 1 10.1793 2.06557 86.0724 0 0 0
11908 1 10.1815 7.47698 86.0688 0 0 0
13585 1 7.4568 37.0726 80.5776 2.19941 -4.84134 0.641282
13665 1 12.9381 15.5562 80.5199 -0.076828 4.21535 2.34979
18297 1 15.5363 7.47188 80.6305 2.0755 -1.6416 2.69332
19974 1 39.9406 10.1895 75.1392 2.36428 -0.991729 3.83974
20054 1 18.3262 15.7059 74.9567 -0.0506895 -1.45826 -1.1394
20134 1 18.3189 20.9651 74.9788 0.380843 3.35739 -7.03625
ITEM: TIMESTEP
2950300
ITEM: NUMBER OF ATOMS
8
ITEM: BOX BOUNDS ss ss pp
-3.9718965952318911e+01 7.0051617408578721e+01
-3.8870108081460771e+01 7.0491899422702943e+01
-2.4000000000000000e+01 8.9000000000000000e+01
ITEM: ATOMS id type x y z vx vy vz
11828 1 10.1793 2.06557 86.0724 0 0 0
11908 1 10.1815 7.47698 86.0688 0 0 0
13585 1 7.46633 37.0519 80.5835 1.52406 -2.869 1.41725
13665 1 12.9363 15.5727 80.5398 -0.690163 2.85229 6.15122
18297 1 15.5459 7.46286 80.6417 2.14704 -2.18927 1.9892
19974 1 39.9606 10.1894 75.153 4.82315 0.309932 2.12766
20054 1 18.3291 15.6992 74.9477 0.744764 -1.9106 -1.69181
20134 1 18.3202 20.9844 74.9501 -0.159424 4.06083 -3.71041
ITEM: TIMESTEP
2950310
ITEM: NUMBER OF ATOMS
8
ITEM: BOX BOUNDS ss ss pp
-3.9718965952318911e+01 7.0051617408578721e+01
-3.8870108081460771e+01 7.0491899422702943e+01
-2.4000000000000000e+01 8.9000000000000000e+01
ITEM: ATOMS id type x y z vx vy vz
11828 1 10.1793 2.06557 86.0724 0 0 0
11908 1 10.1815 7.47698 86.0688 0 0 0
13585 1 7.48165 37.0444 80.5856 3.31701 -0.61625 0.192734
13665 1 12.9321 15.5846 80.5698 -1.35345 2.16218 6.10691
18297 1 15.5556 7.4494 80.6475 2.36047 -3.2296 0.19304
19974 1 39.9836 10.1916 75.1598 3.70574 0.621061 1.13957
20054 1 18.3364 15.6911 74.9398 2.11734 -0.811851 -1.79543
20134 1 18.3191 21.0058 74.9361 -0.590263 4.11488 -1.24252
ITEM: TIMESTEP
2950320
ITEM: NUMBER OF ATOMS
8
ITEM: BOX BOUNDS ss ss pp
-3.9718965952318911e+01 7.0051617408578721e+01
-3.8870108081460771e+01 7.0491899422702943e+01
-2.4000000000000000e+01 8.9000000000000000e+01
ITEM: ATOMS id type x y z vx vy vz
11828 1 10.1793 2.06557 86.0724 0 0 0
11908 1 10.1815 7.47698 86.0688 0 0 0
13585 1 7.49897 37.0464 80.5831 4.44731 1.39971 -1.44092
13665 1 12.9239 15.5922 80.5982 -1.43288 1.09237 5.85759
18297 1 15.5669 7.43485 80.6432 0.94663 -3.03768 -0.797186
19974 1 40.0055 10.1955 75.1613 3.77471 -0.100828 -0.333003
20054 1 18.3496 15.6863 74.9329 3.20844 -1.52565 0.268955
20134 1 18.3139 21.026 74.933 -0.991419 4.24158 0.916724
ITEM: TIMESTEP
2950330
ITEM: NUMBER OF ATOMS
8
ITEM: BOX BOUNDS ss ss pp
-3.9718965952318911e+01 7.0051617408578721e+01
-3.8870108081460771e+01 7.0491899422702943e+01
-2.4000000000000000e+01 8.9000000000000000e+01
ITEM: ATOMS id type x y z vx vy vz
11828 1 10.1793 2.06557 86.0724 0 0 0
11908 1 10.1815 7.47698 86.0688 0 0 0
13585 1 7.52239 37.0611 80.568 4.07588 2.94773 -3.98772
13665 1 12.9217 15.5901 80.6225 -0.546415 -1.51029 4.5728
18297 1 15.5685 7.42092 80.6362 0.0953003 -3.08651 -1.0739
19974 1 40.0186 10.1876 75.158 1.50675 -2.58477 -1.2444
20054 1 18.3685 15.6812 74.935 3.64494 -0.388855 0.639439
20134 1 18.3111 21.0476 74.943 1.03966 3.69974 3.49265
ITEM: TIMESTEP
2950340
ITEM: NUMBER OF ATOMS
8
ITEM: BOX BOUNDS ss ss pp
-3.9718965952318911e+01 7.0051617408578721e+01
-3.8870108081460771e+01 7.0491899422702943e+01
-2.4000000000000000e+01 8.9000000000000000e+01
ITEM: ATOMS id type x y z vx vy vz
11828 1 10.1793 2.06557 86.0724 0 0 0
11908 1 10.1815 7.47698 86.0688 0 0 0
13585 1 7.54039 37.0791 80.5437 2.47779 4.08524 -5.83374
13665 1 12.9197 15.5806 80.6397 -0.43294 -2.23457 2.53746
18297 1 15.5651 7.40552 80.6306 -1.29645 -3.43335 -1.81926
19974 1 40.0211 10.1732 75.1502 0.150548 -2.36915 -2.35309
20054 1 18.3889 15.6799 74.9377 4.27297 -0.157617 0.45446
20134 1 18.3211 21.0571 74.9638 1.98876 0.951114 3.79597
ITEM: TIMESTEP
2950350
ITEM: NUMBER OF ATOMS
8
ITEM: BOX BOUNDS ss ss pp
-3.9718965952318911e+01 7.0051617408578721e+01
-3.8870108081460771e+01 7.0491899422702943e+01
-2.4000000000000000e+01 8.9000000000000000e+01
ITEM: ATOMS id type x y z vx vy vz
11828 1 10.1793 2.06557 86.0724 0 0 0
11908 1 10.1815 7.47698 86.0688 0 0 0
13585 1 7.54772 37.0999 80.517 0.783635 4.28018 -5.074
13665 1 12.9178 15.5635 80.6525 -0.45008 -3.21458 1.56929
18297 1 15.5608 7.38468 80.6236 -0.826194 -4.57715 -1.65434
19974 1 40.0196 10.1589 75.131 -0.354711 -3.31401 -6.02331
20054 1 18.4128 15.6787 74.9429 4.44727 -0.576094 1.07906
20134 1 18.3309 21.0568 74.9845 2.4364 -1.35957 4.06274
ITEM: TIMESTEP
2950360
ITEM: NUMBER OF ATOMS
8
ITEM: BOX BOUNDS ss ss pp
-3.9718965952318911e+01 7.0051617408578721e+01
-3.8870108081460771e+01 7.0491899422702943e+01
-2.4000000000000000e+01 8.9000000000000000e+01
ITEM: ATOMS id type x y z vx vy vz
11828 1 10.1793 2.06557 86.0724 0 0 0
11908 1 10.1815 7.47698 86.0688 0 0 0
13585 1 7.54798 37.1232 80.4924 -0.471178 5.26179 -4.59535
13665 1 12.9187 15.5464 80.6569 1.59813 -2.76437 0.687123
18297 1 15.5561 7.36727 80.6197 -0.976331 -3.00213 -0.423022
19974 1 40.0133 10.1405 75.0955 -2.96065 -4.04438 -6.94701
20054 1 18.4294 15.675 74.9472 2.83504 -1.26358 0.679854
20134 1 18.3436 21.0483 75.0031 2.89825 -2.25825 3.56889
ITEM: TIMESTEP
2950370
ITEM: NUMBER OF ATOMS
8
ITEM: BOX BOUNDS ss ss pp
-3.9718965952318911e+01 7.0051617408578721e+01
-3.8870108081460771e+01 7.0491899422702943e+01
-2.4000000000000000e+01 8.9000000000000000e+01
ITEM: ATOMS id type x y z vx vy vz
11828 1 10.1793 2.06557 86.0724 0 0 0
11908 1 10.1815 7.47698 86.0688 0 0 0
13585 1 7.54416 37.1443 80.4703 -0.99791 2.61703 -4.68936
13665 1 12.9266 15.5357 80.6582 1.74912 -1.44528 -0.110893
18297 1 15.5485 7.35823 80.6221 -1.5898 -1.13337 1.43131
19974 1 39.9955 10.1209 75.0637 -4.0176 -3.33346 -5.38727
20054 1 18.4393 15.6704 74.9517 1.01717 -1.01033 0.732471
20134 1 18.3627 21.0327 75.0151 4.09569 -4.23383 1.1479
ITEM: TIMESTEP
2950380
ITEM: NUMBER OF ATOMS
8
ITEM: BOX BOUNDS ss ss pp
-3.9718965952318911e+01 7.0051617408578721e+01
-3.8870108081460771e+01 7.0491899422702943e+01
-2.4000000000000000e+01 8.9000000000000000e+01
ITEM: ATOMS id type x y z vx vy vz
11828 1 10.1793 2.06557 86.0724 0 0 0
11908 1 10.1815 7.47698 86.0688 0 0 0
13585 1 7.53249 37.1595 80.4535 -3.19116 2.8945 -2.38027
13665 1 12.9418 15.5315 80.6597 3.63631 -0.758333 0.901039
18297 1 15.5415 7.35653 80.6338 -0.863053 -0.142594 3.74496
19974 1 39.9697 10.1074 75.0385 -5.32958 -1.73136 -4.80784
20054 1 18.4452 15.6651 74.9614 1.83962 -2.00366 3.36801
20134 1 18.3813 21.0152 75.0179 3.12807 -3.52665 0.261204
ITEM: TIMESTEP
2950390
ITEM: NUMBER OF ATOMS
8
ITEM: BOX BOUNDS ss ss pp
-3.9718965952318911e+01 7.0051617408578721e+01
-3.8870108081460771e+01 7.0491899422702943e+01
-2.4000000000000000e+01 8.9000000000000000e+01
ITEM: ATOMS id type x y z vx vy vz
11828 1 10.1793 2.06557 86.0724 0 0 0
11908 1 10.1815 7.47698 86.0688 0 0 0
13585 1 7.5099 37.1674 80.4461 -5.48764 0.734409 0.924591
13665 1 12.9572 15.5279 80.6628 3.12427 -0.0370076 0.84752
18297 1 15.5417 7.35788 80.6545 1.09101 0.495925 4.74757
19974 1 39.9463 10.1006 75.0211 -4.81548 -2.11793 -1.6378
20054 1 18.4499 15.6519 74.9782 0.590104 -2.87815 2.93255
20134 1 18.3931 20.9959 75.0169 1.90564 -4.52521 -0.966747
ITEM: TIMESTEP
2950400
ITEM: NUMBER OF ATOMS
8
ITEM: BOX BOUNDS ss ss pp
-3.9718965952318911e+01 7.0051617408578721e+01
-3.8870108081460771e+01 7.0491899422702943e+01
-2.4000000000000000e+01 8.9000000000000000e+01
ITEM: ATOMS id type x y z vx vy vz
11828 1 10.1793 2.06557 86.0724 0 0 0
11908 1 10.1815 7.47698 86.0688 0 0 0
13585 1 7.48378 37.1639 80.4558 -5.36771 -1.7416 2.81714
13665 1 12.9686 15.5262 80.6687 1.90734 -1.511 1.10854
18297 1 15.5498 7.36692 80.6775 2.68872 3.20362 4.71848
19974 1 39.9243 10.0945 75.0191 -3.56322 -0.987521 0.912219
20054 1 18.4473 15.6349 74.9891 -1.39957 -4.05933 1.37227
20134 1 18.3954 20.9755 75.0045 -1.21726 -3.21386 -3.07749
ITEM: TIMESTEP
2950410
ITEM: NUMBER OF ATOMS
8
ITEM: BOX BOUNDS ss ss pp
-3.9718965952318911e+01 7.0051617408578721e+01
-3.8870108081460771e+01 7.0491899422702943e+01
-2.4000000000000000e+01 8.9000000000000000e+01
ITEM: ATOMS id type x y z vx vy vz
11828 1 10.1793 2.06557 86.0724 0 0 0
11908 1 10.1815 7.47698 86.0688 0 0 0
13585 1 7.45976 37.1561 80.4682 -3.85121 -1.49942 2.00034
13665 1 12.9734 15.5156 80.6729 -0.492707 -1.64294 1.15968
18297 1 15.5642 7.37653 80.6972 2.88664 0.959213 4.05506
19974 1 39.9101 10.0959 75.0272 -2.3579 1.43887 2.58097
20054 1 18.4373 15.6152 74.9966 -2.43387 -3.40194 1.91311
20134 1 18.3828 20.9604 74.9873 -3.84827 -3.15305 -3.43704
ITEM: TIMESTEP
2950420
ITEM: NUMBER OF ATOMS
8
ITEM: BOX BOUNDS ss ss pp
-3.9718965952318911e+01 7.0051617408578721e+01
-3.8870108081460771e+01 7.0491899422702943e+01
-2.4000000000000000e+01 8.9000000000000000e+01
ITEM: ATOMS id type x y z vx vy vz
11828 1 10.1793 2.06557 86.0724 0 0 0
11908 1 10.1815 7.47698 86.0688 0 0 0
13585 1 7.44987 37.1442 80.484 0.286954 -2.67494 3.42978
13665 1 12.9717 15.5093 80.6834 -1.14325 -0.852717 3.14681
18297 1 15.579 7.38068 80.7096 3.17981 1.73007 0.750857
19974 1 39.9023 10.1006 75.0458 -1.03667 1.4065 4.74503
20054 1 18.4247 15.601 75.007 -2.19382 -2.32515 2.94551
20134 1 18.3582 20.9452 74.973 -5.50164 -2.68339 -2.59282
ITEM: TIMESTEP
2950430
ITEM: NUMBER OF ATOMS
8
ITEM: BOX BOUNDS ss ss pp
-3.9718965952318911e+01 7.0051617408578721e+01
-3.8870108081460771e+01 7.0491899422702943e+01
-2.4000000000000000e+01 8.9000000000000000e+01
ITEM: ATOMS id type x y z vx vy vz
11828 1 10.1793 2.06557 86.0724 0 0 0
11908 1 10.1815 7.47698 86.0688 0 0 0